% Model:              partial_tunneling_1Mar.mph
% Version:            COMSOL 5.4.0.225
% Date:               Mar 1 2021, 21:21
% Dimension:          1
% Nodes:              500
% Expressions:        303
% Description:        , , 
% X                       cp @ t=0                 ra @ t=0                 rs @ t=0                 cp @ t=0.1               ra @ t=0.1               rs @ t=0.1               cp @ t=0.2               ra @ t=0.2               rs @ t=0.2               cp @ t=0.3               ra @ t=0.3               rs @ t=0.3               cp @ t=0.4               ra @ t=0.4               rs @ t=0.4               cp @ t=0.5               ra @ t=0.5               rs @ t=0.5               cp @ t=0.6               ra @ t=0.6               rs @ t=0.6               cp @ t=0.7               ra @ t=0.7               rs @ t=0.7               cp @ t=0.8               ra @ t=0.8               rs @ t=0.8               cp @ t=0.9               ra @ t=0.9               rs @ t=0.9               cp @ t=1                 ra @ t=1                 rs @ t=1                 cp @ t=1.1               ra @ t=1.1               rs @ t=1.1               cp @ t=1.2               ra @ t=1.2               rs @ t=1.2               cp @ t=1.3               ra @ t=1.3               rs @ t=1.3               cp @ t=1.4               ra @ t=1.4               rs @ t=1.4               cp @ t=1.5               ra @ t=1.5               rs @ t=1.5               cp @ t=1.6               ra @ t=1.6               rs @ t=1.6               cp @ t=1.7               ra @ t=1.7               rs @ t=1.7               cp @ t=1.8               ra @ t=1.8               rs @ t=1.8               cp @ t=1.9               ra @ t=1.9               rs @ t=1.9               cp @ t=2                 ra @ t=2                 rs @ t=2                 cp @ t=2.1               ra @ t=2.1               rs @ t=2.1               cp @ t=2.2               ra @ t=2.2               rs @ t=2.2               cp @ t=2.3               ra @ t=2.3               rs @ t=2.3               cp @ t=2.4               ra @ t=2.4               rs @ t=2.4               cp @ t=2.5               ra @ t=2.5               rs @ t=2.5               cp @ t=2.6               ra @ t=2.6               rs @ t=2.6               cp @ t=2.7               ra @ t=2.7               rs @ t=2.7               cp @ t=2.8               ra @ t=2.8               rs @ t=2.8               cp @ t=2.9               ra @ t=2.9               rs @ t=2.9               cp @ t=3                 ra @ t=3                 rs @ t=3                 cp @ t=3.1               ra @ t=3.1               rs @ t=3.1               cp @ t=3.2               ra @ t=3.2               rs @ t=3.2               cp @ t=3.3               ra @ t=3.3               rs @ t=3.3               cp @ t=3.4               ra @ t=3.4               rs @ t=3.4               cp @ t=3.5               ra @ t=3.5               rs @ t=3.5               cp @ t=3.6               ra @ t=3.6               rs @ t=3.6               cp @ t=3.7               ra @ t=3.7               rs @ t=3.7               cp @ t=3.8               ra @ t=3.8               rs @ t=3.8               cp @ t=3.9               ra @ t=3.9               rs @ t=3.9               cp @ t=4                 ra @ t=4                 rs @ t=4                 cp @ t=4.1               ra @ t=4.1               rs @ t=4.1               cp @ t=4.2               ra @ t=4.2               rs @ t=4.2               cp @ t=4.3               ra @ t=4.3               rs @ t=4.3               cp @ t=4.4               ra @ t=4.4               rs @ t=4.4               cp @ t=4.5               ra @ t=4.5               rs @ t=4.5               cp @ t=4.6               ra @ t=4.6               rs @ t=4.6               cp @ t=4.7               ra @ t=4.7               rs @ t=4.7               cp @ t=4.8               ra @ t=4.8               rs @ t=4.8               cp @ t=4.9               ra @ t=4.9               rs @ t=4.9               cp @ t=5                 ra @ t=5                 rs @ t=5                 cp @ t=5.1               ra @ t=5.1               rs @ t=5.1               cp @ t=5.2               ra @ t=5.2               rs @ t=5.2               cp @ t=5.3               ra @ t=5.3               rs @ t=5.3               cp @ t=5.4               ra @ t=5.4               rs @ t=5.4               cp @ t=5.5               ra @ t=5.5               rs @ t=5.5               cp @ t=5.6               ra @ t=5.6               rs @ t=5.6               cp @ t=5.7               ra @ t=5.7               rs @ t=5.7               cp @ t=5.8               ra @ t=5.8               rs @ t=5.8               cp @ t=5.9               ra @ t=5.9               rs @ t=5.9               cp @ t=6                 ra @ t=6                 rs @ t=6                 cp @ t=6.1               ra @ t=6.1               rs @ t=6.1               cp @ t=6.2               ra @ t=6.2               rs @ t=6.2               cp @ t=6.3               ra @ t=6.3               rs @ t=6.3               cp @ t=6.4               ra @ t=6.4               rs @ t=6.4               cp @ t=6.5               ra @ t=6.5               rs @ t=6.5               cp @ t=6.6               ra @ t=6.6               rs @ t=6.6               cp @ t=6.7               ra @ t=6.7               rs @ t=6.7               cp @ t=6.8               ra @ t=6.8               rs @ t=6.8               cp @ t=6.9               ra @ t=6.9               rs @ t=6.9               cp @ t=7                 ra @ t=7                 rs @ t=7                 cp @ t=7.1               ra @ t=7.1               rs @ t=7.1               cp @ t=7.2               ra @ t=7.2               rs @ t=7.2               cp @ t=7.3               ra @ t=7.3               rs @ t=7.3               cp @ t=7.4               ra @ t=7.4               rs @ t=7.4               cp @ t=7.5               ra @ t=7.5               rs @ t=7.5               cp @ t=7.6               ra @ t=7.6               rs @ t=7.6               cp @ t=7.7               ra @ t=7.7               rs @ t=7.7               cp @ t=7.8               ra @ t=7.8               rs @ t=7.8               cp @ t=7.9               ra @ t=7.9               rs @ t=7.9               cp @ t=8                 ra @ t=8                 rs @ t=8                 cp @ t=8.1               ra @ t=8.1               rs @ t=8.1               cp @ t=8.2               ra @ t=8.2               rs @ t=8.2               cp @ t=8.3               ra @ t=8.3               rs @ t=8.3               cp @ t=8.4               ra @ t=8.4               rs @ t=8.4               cp @ t=8.5               ra @ t=8.5               rs @ t=8.5               cp @ t=8.6               ra @ t=8.6               rs @ t=8.6               cp @ t=8.7               ra @ t=8.7               rs @ t=8.7               cp @ t=8.8               ra @ t=8.8               rs @ t=8.8               cp @ t=8.9               ra @ t=8.9               rs @ t=8.9               cp @ t=9                 ra @ t=9                 rs @ t=9                 cp @ t=9.1               ra @ t=9.1               rs @ t=9.1               cp @ t=9.2               ra @ t=9.2               rs @ t=9.2               cp @ t=9.3               ra @ t=9.3               rs @ t=9.3               cp @ t=9.4               ra @ t=9.4               rs @ t=9.4               cp @ t=9.5               ra @ t=9.5               rs @ t=9.5               cp @ t=9.6               ra @ t=9.6               rs @ t=9.6               cp @ t=9.7               ra @ t=9.7               rs @ t=9.7               cp @ t=9.8               ra @ t=9.8               rs @ t=9.8               cp @ t=9.9               ra @ t=9.9               rs @ t=9.9               cp @ t=10                ra @ t=10                rs @ t=10
0.002                     3.583734183776343E-19    1.8115236075383758E-14   1.0552443532415937E-13   1.728074644805349E-5     0.001052582551803093     1.0531031564792046E-13   5.901604094737684E-4     0.012653816342331217     1.0507039450957632E-13   0.0026255255057470923    0.030305618532756574     1.0474046280020779E-13   0.0061258891303617976    0.04599842771609718      1.0427011096677561E-13   0.01064513652973996      0.05787774591793733      1.0363581174074568E-13   0.01573094107929334      0.0663381182511771       1.0283677316720311E-13   0.021036732735127076     0.07216559508144192      1.0188733728519861E-13   0.02632062173842375      0.0760592197134506       1.0081019385021279E-13   0.031422728349940324     0.07855180888495975      9.963108847859414E-14    0.036242123342420815     0.08003104792171248      9.837548380130318E-14    0.04072040639279         0.08077657302829802      9.706667104689337E-14    0.04482707701143188      0.08098804142347356      9.572471850039473E-14    0.04855146073732422      0.08081070654739719      9.436645143240626E-14    0.0518961448424627       0.08035046018002887      9.300547680824734E-14    0.05487248691718294      0.07968514070150476      9.165251085832019E-14    0.05749745357292654      0.07887240929480588      9.031578303716664E-14    0.05979139841530727      0.0779552771300887       8.900144840707662E-14    0.06177650267187551      0.07696601648131136      8.77139708033464E-14     0.0634756861861573       0.07592895516226002      8.645645969206052E-14    0.06491185407307515      0.07486249315889207      8.523095583019062E-14    0.06610330824099428      0.07378053775490971      8.403931718912965E-14    0.06708380859065036      0.07269388292775829      8.288021603777583E-14    0.06785856191490945      0.0716103599314272       8.175616013961395E-14    0.06846010807220934      0.0705356117083631       8.066450566222716E-14    0.06889440425016993      0.06947491872721681      7.960703211302098E-14    0.06918888448578363      0.06843056388083454      7.858070961769783E-14    0.06934929436482708      0.06740622274997059      7.758688682887774E-14    0.06939840375053519      0.0664022019226368       7.662242743227291E-14    0.06934153210664298      0.06542116615708596      7.568839938463056E-14    0.06919732171315814      0.06446226940206518      7.478172222378236E-14    0.06897058415003382      0.06352752194414318      7.39032767165383E-14     0.06867640106397051      0.06261542428832957      7.305012527428329E-14    0.06831906285705307      0.06172755121229774      7.222302028213992E-14    0.06791063230068467      0.06086205555706721      7.1419209158236E-14      0.06745490154486379      0.060020214259713205     7.063935315470978E-14    0.06696140640775726      0.05920002071427345      6.988090043928314E-14    0.06643348120505475      0.05840254244392271      6.914444501532335E-14    0.06587856778187962      0.057625728966850975     6.842763642714511E-14    0.0652995898713447       0.05687049635643927      6.7731017002253E-14      0.06470226867053146      0.05613482035446329      6.705242997880884E-14    0.064089165464673        0.05541950433894069      6.639237638260205E-14    0.0634645980355795       0.054722591649875724     6.574888122568873E-14    0.0628306062464793       0.054045494549857256     6.512303915295107E-14    0.062191124597300744     0.05338428423434877      6.451121799574668E-14    0.06154723552606689      0.05274230179194809      6.391620796858745E-14    0.06090164789860515      0.052116328298995644     6.333508016071485E-14    0.06025596662763465      0.05150588366598595      6.276732786644727E-14    0.05961165103019987      0.050910628287765075     6.221257715217642E-14    0.0589705313235973       0.050332130765914945     6.167207855014851E-14    0.05833339436006643      0.049767608690620274     6.11433952858201E-14     0.05770116401490332      0.04921661887692442      6.062609788602073E-14    0.05707471144163283      0.04867886479545498      6.01198865767662E-14     0.056455767970361295     0.048155714039055504     5.962584947565025E-14    0.05584397216518584      0.04764474165311394      5.914192081375904E-14    0.055239803349911305     0.047145565571958856     5.866774871720794E-14    0.05464375256012201      0.0466579317578936       5.820309093998276E-14    0.054057421753580935     0.04618304015048477      5.774889960954138E-14    0.05347979286009406      0.045718782379976855     5.730341417950555E-14    0.05291106661429557      0.04526483203207951      5.68663446340315E-14     0.05235149269362534      0.04482097502745505      5.643749495917367E-14    0.05180253339518369      0.04438827130017036      5.6017703733392833E-14   0.05126283032829057      0.043964884871278996     5.560546054493899E-14    0.05073241494890003      0.04355053826890617      5.520052521587013E-14    0.05021138763773182      0.04314505254333384      5.480273864359073E-14    0.04970107267854493      0.042749369536124744     5.4412843808885317E-14   0.04919996943808903      0.04236188535991597      5.4029536182804334E-14   0.04870801121095374      0.04198236438989454      5.365261574284224E-14    0.04822520924196759      0.04161065762208256      5.328195285831226E-14    0.047752757732530106     0.04124760655025207      5.291820947634972E-14    0.047289133962220134     0.040891804211360974     5.256025137983374E-14    0.046834218511606296     0.04054305026118977      5.2207910992704295E-14   0.04638797219563336      0.040201220792900366     5.186108225805325E-14    0.04595147000385179      0.03986707146750697      5.1520357992763416E-14   0.045523236681729154     0.039539362287441086     5.1184745664153924E-14   0.04510312851559754      0.03921792243403038      5.085410401698198E-14    0.0446910803300364       0.0389026488319519       5.052834590616034E-14    0.04428805974647872      0.03859422326785846      5.0208004813988575E-14   0.04389267623612454      0.038291547509394085     4.989220678359387E-14    0.04350477905209875      0.037994475360886217     4.958083201139759E-14    0.04312429208788832      0.03770292094246845      4.927380858050304E-14    0.04275208729864929      0.037417502073461506     4.8971618751617675E-14   0.0423868759738088       0.03713724123031702      4.867348841459643E-14    0.04202851037884515      0.03686201272976736      4.837931533954934E-14    0.0416769124425148       0.03659174484302833      4.80890399235349E-14     0.041332869420991555     0.036326999669959205     4.780309996662243E-14    0.04099519928344991      0.036066902857211286     4.752080595421886E-14    0.04066376276171253      0.03581134581893829      4.724207013229061E-14    0.04033848488475112      0.03556026845572428      4.696684290102768E-14    0.040020078166492015     0.035314184046989314     4.6695523267957026E-14   0.03970746501257397      0.035072306814426114     4.6427493830587E-14      0.03940051721274767      0.03483454244766472      4.616267882685952E-14    0.0390991655075594       0.034600840401757524     4.590103682219213E-14    0.03880405652622883      0.034371670934063105     4.564293281120359E-14    0.038514211021343885     0.03414632468820986      4.538781122938804E-14    0.03822951269733167      0.0339247193042807       4.513560630652868E-14    0.037951519695796375     0.03370799242937451      4.488721331299313E-14    0.03767638908356235      0.0334933501873659       4.464044656796427E-14    0.037407539854821203     0.033283284903255314     4.439724449261219E-14    0.03714344304478236      0.03307668894132477      4.4156740157979296E-14   0.03688244572366759      0.032872355793066174     4.3917995382996525E-14
0.006                     6.668490758583014E-19    3.354320829075595E-14    1.3408824173797104E-13   1.772272813587267E-5     0.0010766580813325584    1.3381613749649968E-13   5.968535468866646E-4     0.012808831631379339     1.3351074663312091E-13   0.0026446729621384473    0.03060474809748094      1.330895532809777E-13    0.006159231050899884     0.046412232137843915     1.3248756639218208E-13   0.010691900549107573     0.05837487505234659      1.3167424604971193E-13   0.015789446187210513     0.06689347315837689      1.3064841981146218E-13   0.02110511502846138      0.07276051208570374      1.2942855785636244E-13   0.026397122167202365     0.07668014371057696      1.2804399229506638E-13   0.03150578939370762      0.07918894556916847      1.265280409600506E-13    0.03633040622944958      0.08067730982814496      1.2491366148882745E-13   0.040812780034261587     0.0814268216114604       1.2323099097405463E-13   0.04492259155259524      0.08163853215653477      1.2150598223653103E-13   0.04864932341088684      0.08145871240873687      1.1976037619621012E-13   0.051995696106442016     0.08099399868887902      1.1801173728316977E-13   0.05497317938921802      0.08032277867673385      1.1627388120571722E-13   0.05759883394146557      0.07950312183139233      1.1455740141686682E-13   0.05989309213689785      0.07857834475498948      1.1287020584402422E-13   0.061878201123501404     0.07758094944165388      1.1121801504283357E-13   0.06357713591773759      0.07653543718815846      1.0960479970895137E-13   0.0650128478288637       0.0754603393449043       1.0803315134000636E-13   0.06620367503416824      0.07436966301071021      1.065054302772578E-13    0.06718341738598957      0.07327427782749596      1.0501987436498311E-13   0.06795729973826871      0.07218207268299265      1.0357969622294517E-13   0.06855789170077559      0.07109872889667176      1.0218144200521434E-13   0.06899116411770106      0.07002956610793838      1.0082738554819602E-13   0.06928457122795938      0.06897688146070367      9.951358513380044E-14    0.06944386883541932      0.06794437804242794      9.82417607659788E-14     0.06949184028298072      0.06693236250489365      9.700784232896949E-14    0.06943381278492952      0.06594351972116194      9.581318986907665E-14    0.06928843734707736      0.06497699546135978      9.465381277776813E-14    0.06906053151305452      0.06403481531201197      9.353083164467768E-14    0.06876518229522999      0.06311546697067645      9.244044620758264E-14    0.0684066847519738       0.06222053729196877      9.138361323369225E-14    0.06799710465180418      0.06134816389799991      9.035677590270069E-14    0.06754023783485533      0.06049963358547445      8.936077496019098E-14    0.06704562145650098      0.059672923483370346     8.83923162779157E-14     0.06651659280156598      0.058869109406099046     8.74521551561884E-14     0.0659605939004936       0.05808612439771877      8.65372601016795E-14     0.06538055091221576      0.05732489168167821      8.564832085353018E-14    0.06478218443205803      0.05658337082218863      8.478255794635765E-14    0.06416805775762291      0.05586237149302623      8.394060876759247E-14    0.06354248754389218      0.055159921449131316     8.311992994977444E-14    0.06290751620305615      0.05447744410052594      8.23219217402523E-14     0.06226707427850106      0.05381097946130752      8.154191516056111E-14    0.06162224893327855      0.05316389507348627      8.078348741764189E-14    0.060975745581906465     0.05253294648235171      8.004287454845829E-14    0.0603291689457766       0.05191764978167857      7.93194226976879E-14     0.05968397827779398      0.05131766266690744      7.861264865355544E-14    0.05904200631108806      0.050734566159131064     7.792415242844136E-14    0.058404036421609504     0.05016555580402007      7.725080564158904E-14    0.057770992106859126     0.049610184905538784     7.659205491562492E-14    0.05714374431389811      0.04906815458670713      7.594751335367065E-14    0.05652402653946146      0.04854084327753542      7.53185724925204E-14     0.05591147404346351      0.04802580681801358      7.470258262574123E-14    0.05530656572381109      0.04752266012069605      7.409909085813817E-14    0.054709792357603516     0.047031147141067244     7.350778487873405E-14    0.05412275778361738      0.04655247733416555      7.292988175949811E-14    0.05354444090765289      0.04608452563164252      7.23631250803383E-14     0.052975042044858874     0.0456269630395607       7.180714191797174E-14    0.05241481060993309      0.04517957378933977      7.126167979457401E-14    0.05186521054586922      0.04474342622558509      7.072781017761627E-14    0.05132488074740576      0.044316669824431276     7.020359860129825E-14    0.05079385228288174      0.043899024921727495     6.968873648341918E-14    0.05027222528823941      0.04349031115651918      6.918301904752987E-14    0.04976132549737156      0.0430914778481433       6.868739523027457E-14    0.049259649864059334     0.04270090839813798      6.820019531351345E-14    0.0487671313365439       0.0423183653199863       6.77211624945635E-14     0.048283780941709015     0.04194369843491886      6.725013003809032E-14    0.04781079416667688      0.041577755921321055     6.6787943060294E-14      0.047346646155171715     0.041219119660665986     6.63331506697202E-14     0.04689121718396099      0.04086758772544489      6.588553786017101E-14    0.04644446787887716      0.04052303523193686      6.544496829312307E-14    0.04600747437606165      0.04018622384690046      6.501219854955987E-14    0.04557875953182661      0.03985590373630352      6.458595965083682E-14    0.04515817936866251      0.03953190273106264      6.416607046662772E-14    0.04474566854952849      0.03921411694312264      6.375241902250126E-14    0.04434219572388769      0.03890323358023127      6.334568593756659E-14    0.04394636868959823      0.038598145693760945     6.294475437817615E-14    0.04355803647171577      0.03829870593179653      6.254947080193166E-14    0.043177122826813144     0.038004827737181814     6.215974283800349E-14    0.042804500636371784     0.03771713384378065      6.177618555304576E-14    0.042438879703502845     0.03743463896590912      6.139781015312823E-14    0.04208011209678112      0.037157216425808035     6.102448568125817E-14    0.04172811962951781      0.03688479392884237      6.06561356082172E-14     0.041383690396400934     0.036617938047912774     6.029331811968992E-14    0.04104564104165991      0.03635576748338338      5.993515284730296E-14    0.040713832126936        0.03609817278975475      5.958152742704568E-14    0.04038818858403553      0.035845093393333693     5.923237819109776E-14    0.04006942368910109      0.03559704665951764      5.888821371145681E-14    0.039756458661912866     0.03535324056448194      5.854824600136993E-14    0.03944916514474204      0.035113580050812034     5.821237809121984E-14    0.03914747379633756      0.034878014174519634     5.788055680622139E-14    0.038852031941427834     0.03464701693765213      5.755324723082211E-14    0.03856185926676385      0.03441987334325506      5.72297405632591E-14     0.038276839348485595     0.03419650037866348      5.690995265447588E-14    0.037998532014147345     0.03397804474826582      5.6595024594472533E-14   0.0377230901689078       0.03376169034251024      5.6282169661122447E-14   0.03745393650970927      0.033549949324438756     5.5973858701938846E-14   0.03718954041772364      0.033341705245700425     5.56689861691703E-14     0.03692824717254717      0.033135741993587174     5.5366356288819845E-14