% Model:              partial_tunneling.mph
% Version:            COMSOL 5.4.0.225
% Date:               Feb 11 2020, 16:27
% Dimension:          1
% Nodes:              500
% Expressions:        303
% Description:        , , 
% X                       cp @ t=0                 ra @ t=0                 rs @ t=0                 cp @ t=0.1               ra @ t=0.1               rs @ t=0.1               cp @ t=0.2               ra @ t=0.2               rs @ t=0.2               cp @ t=0.3               ra @ t=0.3               rs @ t=0.3               cp @ t=0.4               ra @ t=0.4               rs @ t=0.4               cp @ t=0.5               ra @ t=0.5               rs @ t=0.5               cp @ t=0.6               ra @ t=0.6               rs @ t=0.6               cp @ t=0.7               ra @ t=0.7               rs @ t=0.7               cp @ t=0.8               ra @ t=0.8               rs @ t=0.8               cp @ t=0.9               ra @ t=0.9               rs @ t=0.9               cp @ t=1                 ra @ t=1                 rs @ t=1                 cp @ t=1.1               ra @ t=1.1               rs @ t=1.1               cp @ t=1.2               ra @ t=1.2               rs @ t=1.2               cp @ t=1.3               ra @ t=1.3               rs @ t=1.3               cp @ t=1.4               ra @ t=1.4               rs @ t=1.4               cp @ t=1.5               ra @ t=1.5               rs @ t=1.5               cp @ t=1.6               ra @ t=1.6               rs @ t=1.6               cp @ t=1.7               ra @ t=1.7               rs @ t=1.7               cp @ t=1.8               ra @ t=1.8               rs @ t=1.8               cp @ t=1.9               ra @ t=1.9               rs @ t=1.9               cp @ t=2                 ra @ t=2                 rs @ t=2                 cp @ t=2.1               ra @ t=2.1               rs @ t=2.1               cp @ t=2.2               ra @ t=2.2               rs @ t=2.2               cp @ t=2.3               ra @ t=2.3               rs @ t=2.3               cp @ t=2.4               ra @ t=2.4               rs @ t=2.4               cp @ t=2.5               ra @ t=2.5               rs @ t=2.5               cp @ t=2.6               ra @ t=2.6               rs @ t=2.6               cp @ t=2.7               ra @ t=2.7               rs @ t=2.7               cp @ t=2.8               ra @ t=2.8               rs @ t=2.8               cp @ t=2.9               ra @ t=2.9               rs @ t=2.9               cp @ t=3                 ra @ t=3                 rs @ t=3                 cp @ t=3.1               ra @ t=3.1               rs @ t=3.1               cp @ t=3.2               ra @ t=3.2               rs @ t=3.2               cp @ t=3.3               ra @ t=3.3               rs @ t=3.3               cp @ t=3.4               ra @ t=3.4               rs @ t=3.4               cp @ t=3.5               ra @ t=3.5               rs @ t=3.5               cp @ t=3.6               ra @ t=3.6               rs @ t=3.6               cp @ t=3.7               ra @ t=3.7               rs @ t=3.7               cp @ t=3.8               ra @ t=3.8               rs @ t=3.8               cp @ t=3.9               ra @ t=3.9               rs @ t=3.9               cp @ t=4                 ra @ t=4                 rs @ t=4                 cp @ t=4.1               ra @ t=4.1               rs @ t=4.1               cp @ t=4.2               ra @ t=4.2               rs @ t=4.2               cp @ t=4.3               ra @ t=4.3               rs @ t=4.3               cp @ t=4.4               ra @ t=4.4               rs @ t=4.4               cp @ t=4.5               ra @ t=4.5               rs @ t=4.5               cp @ t=4.6               ra @ t=4.6               rs @ t=4.6               cp @ t=4.7               ra @ t=4.7               rs @ t=4.7               cp @ t=4.8               ra @ t=4.8               rs @ t=4.8               cp @ t=4.9               ra @ t=4.9               rs @ t=4.9               cp @ t=5                 ra @ t=5                 rs @ t=5                 cp @ t=5.1               ra @ t=5.1               rs @ t=5.1               cp @ t=5.2               ra @ t=5.2               rs @ t=5.2               cp @ t=5.3               ra @ t=5.3               rs @ t=5.3               cp @ t=5.4               ra @ t=5.4               rs @ t=5.4               cp @ t=5.5               ra @ t=5.5               rs @ t=5.5               cp @ t=5.6               ra @ t=5.6               rs @ t=5.6               cp @ t=5.7               ra @ t=5.7               rs @ t=5.7               cp @ t=5.8               ra @ t=5.8               rs @ t=5.8               cp @ t=5.9               ra @ t=5.9               rs @ t=5.9               cp @ t=6                 ra @ t=6                 rs @ t=6                 cp @ t=6.1               ra @ t=6.1               rs @ t=6.1               cp @ t=6.2               ra @ t=6.2               rs @ t=6.2               cp @ t=6.3               ra @ t=6.3               rs @ t=6.3               cp @ t=6.4               ra @ t=6.4               rs @ t=6.4               cp @ t=6.5               ra @ t=6.5               rs @ t=6.5               cp @ t=6.6               ra @ t=6.6               rs @ t=6.6               cp @ t=6.7               ra @ t=6.7               rs @ t=6.7               cp @ t=6.8               ra @ t=6.8               rs @ t=6.8               cp @ t=6.9               ra @ t=6.9               rs @ t=6.9               cp @ t=7                 ra @ t=7                 rs @ t=7                 cp @ t=7.1               ra @ t=7.1               rs @ t=7.1               cp @ t=7.2               ra @ t=7.2               rs @ t=7.2               cp @ t=7.3               ra @ t=7.3               rs @ t=7.3               cp @ t=7.4               ra @ t=7.4               rs @ t=7.4               cp @ t=7.5               ra @ t=7.5               rs @ t=7.5               cp @ t=7.6               ra @ t=7.6               rs @ t=7.6               cp @ t=7.7               ra @ t=7.7               rs @ t=7.7               cp @ t=7.8               ra @ t=7.8               rs @ t=7.8               cp @ t=7.9               ra @ t=7.9               rs @ t=7.9               cp @ t=8                 ra @ t=8                 rs @ t=8                 cp @ t=8.1               ra @ t=8.1               rs @ t=8.1               cp @ t=8.2               ra @ t=8.2               rs @ t=8.2               cp @ t=8.3               ra @ t=8.3               rs @ t=8.3               cp @ t=8.4               ra @ t=8.4               rs @ t=8.4               cp @ t=8.5               ra @ t=8.5               rs @ t=8.5               cp @ t=8.6               ra @ t=8.6               rs @ t=8.6               cp @ t=8.7               ra @ t=8.7               rs @ t=8.7               cp @ t=8.8               ra @ t=8.8               rs @ t=8.8               cp @ t=8.9               ra @ t=8.9               rs @ t=8.9               cp @ t=9                 ra @ t=9                 rs @ t=9                 cp @ t=9.1               ra @ t=9.1               rs @ t=9.1               cp @ t=9.2               ra @ t=9.2               rs @ t=9.2               cp @ t=9.3               ra @ t=9.3               rs @ t=9.3               cp @ t=9.4               ra @ t=9.4               rs @ t=9.4               cp @ t=9.5               ra @ t=9.5               rs @ t=9.5               cp @ t=9.6               ra @ t=9.6               rs @ t=9.6               cp @ t=9.7               ra @ t=9.7               rs @ t=9.7               cp @ t=9.8               ra @ t=9.8               rs @ t=9.8               cp @ t=9.9               ra @ t=9.9               rs @ t=9.9               cp @ t=10                ra @ t=10                rs @ t=10
0.002                     3.5717280639945647E-19   1.803254598487897E-14    1.0552447691205989E-13   6.595211650870421E-7     3.2226069044417034E-5    1.0551881385621538E-13   1.0493219622700501E-5    1.5069150584991236E-4    1.0551314199899085E-13   2.8227757316481226E-5    1.7592387253403128E-4    1.0550746190016571E-13   4.452655981158614E-5     1.4328030884817875E-4    1.0550178197998322E-13   5.610153695050885E-5     1.0394560214940603E-4    1.0549610533935967E-13   6.326874810076427E-5     7.360550592435623E-5     1.0549043194429909E-13   6.718172718544831E-5     5.313982013620798E-5     1.0548476103618671E-13   6.889508694564384E-5     3.9963582895800085E-5    1.0547909191856134E-13   6.917275059951209E-5     3.154336996469803E-5     1.0547342410673525E-13   6.852426684569093E-5     2.6087952289766973E-5    1.0546775729643916E-13   6.728743582999663E-5     2.243909870174951E-5     1.0546209129464E-13      6.567540408165385E-5     1.991040542325567E-5     1.0545642599064494E-13   6.383048571649357E-5     1.8082919180497593E-5    1.0545076131389023E-13   6.184762155821694E-5     1.670548389792756E-5     1.054450972192389E-13    5.9791316936286186E-5    1.5626104053230647E-5    1.0543943367636608E-13   5.770618658569896E-5     1.4751178753439471E-5    1.0543377066360507E-13   5.56235445499178E-5      1.4021711025701826E-5    1.0542810816442611E-13   5.356558597787793E-5     1.3399470490843273E-5    1.054224461654213E-13    5.1548096418532496E-5    1.2858912893514539E-5    1.0541678465514661E-13   4.9582250530507114E-5    1.238241600072643E-5     1.0541112362345292E-13   4.767583805952361E-5     1.1957431077509239E-5    1.0540546306109535E-13   4.583412188694001E-5     1.1574749155734775E-5    1.0539980295950318E-13   4.406092611624395E-5     1.1227572430552018E-5    1.0539414331348793E-13   4.2357735370522554E-5    1.0910376767690445E-5    1.0538848411299136E-13   4.07241743609964E-5      1.0618543040475962E-5    1.0538282534382475E-13   3.9162286083039686E-5    1.0349405359271623E-5    1.0537716701228159E-13   3.766922074030852E-5     1.009952291977047E-5     1.0537150909899251E-13   3.624581554840104E-5     9.86715533956386E-6      1.0536585161047035E-13   3.488839910764432E-5     9.649864219659701E-6     1.0536019452833352E-13   3.3597054615271985E-5    9.446459952752276E-6     1.0535453785933165E-13   3.236773339805803E-5     9.255145425794791E-6     1.0534888158598943E-13   3.1200050592939566E-5    9.075078424441348E-6     1.0534322571527783E-13   3.0089858115521945E-5    8.90489363780639E-6      1.0533757023055026E-13   2.9036491151634193E-5    8.74397841348863E-6      1.0533191513898821E-13   2.8035875472499473E-5    8.59126998689288E-6      1.0532626042470173E-13   2.708719124081798E-5     8.44631298060253E-6      1.0532060609507122E-13   2.6186543340079868E-5    8.30826341186708E-6      1.0531495213489542E-13   2.5333040023010913E-5    8.176776829205828E-6     1.0530929855174103E-13   2.4523025691057208E-5    8.051171600556801E-6     1.0530364533103085E-13   2.3755591570104262E-5    7.931183412222222E-6     1.0529799248050409E-13   2.302735224369249E-5     7.816253749001775E-6     1.0529233998614747E-13   2.2337417496852563E-5    7.706177383179204E-6     1.0528668785585843E-13   2.1682683102697332E-5    7.6004909127304325E-6    1.0528103607613139E-13   2.1062299711680522E-5    7.499033446908556E-6     1.0527538465500801E-13   2.047382740770396E-5     7.401461761627417E-6     1.0526973358455193E-13   1.9916717933755208E-5    7.307679082676611E-6     1.0526408287606965E-13   1.9387054554106833E-5    7.217192816123179E-6     1.0525843250040315E-13   1.888337136761765E-5     7.129815236936159E-6     1.0525278245513362E-13   1.840553214684768E-5     7.0455238523016905E-6    1.0524713275556953E-13   1.7953479097172307E-5    6.964311228489438E-6     1.0524148342024858E-13   1.7523214298579355E-5    6.885704098787737E-6     1.0523583440991466E-13   1.7113593994910374E-5    6.809572868126713E-6     1.0523018572311193E-13   1.67244871245025E-5      6.735912907055882E-6     1.0522453737512819E-13   1.6355825142951113E-5    6.6647315796002535E-6    1.0521888938442363E-13   1.6004433009789718E-5    6.595660097956188E-6     1.0521324171288452E-13   1.566939549388623E-5     6.5286029350891415E-6    1.0520759435932507E-13   1.5350604415220378E-5    6.463566256234701E-6     1.052019473390624E-13    1.5048003362314859E-5    6.400566410437972E-6     1.0519630067056833E-13   1.4759077633740247E-5    6.3393086987170875E-6    1.0519065431657032E-13   1.4483104006701147E-5    6.279721266035072E-6     1.0518500827612077E-13   1.4219999732949673E-5    6.2218164297037095E-6    1.051793625645534E-13    1.3969724819446846E-5    6.1656153232314286E-6    1.0517371720034049E-13   1.3730291790270849E-5    6.110877609787162E-6     1.0516807214688176E-13   1.3501132766830895E-5    6.05754810200375E-6      1.051624274034151E-13    1.3282188892465535E-5    6.005642521096588E-6     1.0515678298528274E-13   1.3073436741651894E-5    5.955184338029491E-6     1.0515113891095218E-13   1.2873305302177711E-5    5.905973965080481E-6     1.0514549514435912E-13   1.2681350484956474E-5    5.8579682016356896E-6    1.051398516848865E-13    1.2497533981050221E-5    5.8111844811908E-6       1.0513420854787886E-13   1.2321847000957643E-5    5.765647123416433E-6     1.0512856575179391E-13   1.2153045315673992E-5    5.721187695461661E-6     1.0512292326099718E-13   1.1990782380712666E-5    5.677771763851014E-6     1.0511728107498498E-13   1.1835036632500055E-5    5.635417412804173E-6     1.0511163920909879E-13   1.1685811270421114E-5    5.59414889400586E-6      1.051059976817835E-13    1.1542117382482297E-5    5.55382203674448E-6      1.0510035645775097E-13   1.1403684683574112E-5    5.514408917784364E-6     1.0509471553658629E-13   1.1270504731510468E-5    5.475927600976976E-6     1.0508907493362421E-13   1.1142590019388154E-5    5.4384017068492805E-6    1.0508343466729404E-13   1.1019150639437975E-5    5.4017062954929265E-6    1.0507779470258908E-13   1.0899975592986544E-5    5.365818348130827E-6     1.050721550391643E-13    1.0785066383330168E-5    5.330755486862045E-6     1.0506651569234481E-13   1.0674442360462608E-5    5.296540362900435E-6     1.0506087668054276E-13   1.0567468602887087E-5    5.263063541673929E-6     1.0505523796898205E-13   1.0463980025853292E-5    5.230305752508643E-6     1.0504959955737276E-13   1.0363985428802464E-5    5.198283917717205E-6     1.0504396146102848E-13   1.0267508953833798E-5    5.167019527206493E-6     1.0503832369834312E-13   1.0174036454734233E-5    5.136415855337425E-6     1.0503268623473146E-13   1.0083438316824493E-5    5.106456538114469E-6     1.0502704906994723E-13   9.995728497481405E-6     5.077157648444538E-6     1.0502141221929118E-13   9.910934253619167E-6     5.048539418971567E-6     1.0501577570113871E-13   9.828635731646968E-6     5.020515705095299E-6     1.0501013948106411E-13   9.748730683249929E-6     4.993072431273499E-6     1.0500450355885586E-13   9.67129171142971E-6      4.966238921977412E-6     1.049988679576638E-13    9.596656226050473E-6     4.940114178398989E-6     1.0499323274088851E-13   9.523592332247682E-6     4.9143960174308E-6       1.0498759775173104E-13   9.452354882709404E-6     4.889150371388017E-6     1.0498196302710254E-13   9.383887932600832E-6     4.8646412063316385E-6    1.049763287306176E-13    9.316647406303165E-6     4.84046385603638E-6      1.0497069463187056E-13   9.25161165378349E-6      4.816888880987737E-6     1.0496506089690945E-13   9.18844094140195E-6      4.793836669136165E-6     1.0495942748940824E-13
0.006                     6.652956026038905E-19    3.3440245791236217E-14   1.3408829458306267E-13   7.105907713092406E-7     3.527478067955639E-5     1.3408109854504597E-13   1.1014877893462524E-5    1.6350321956539314E-4    1.3407389033360642E-13   2.9279009464328794E-5    1.9052238010740772E-4    1.340666708368271E-13    4.5856902966262894E-5    1.5507759939695085E-4    1.3405945166145885E-13   5.7506715366849865E-5    1.1248428978718839E-4    1.3405223705058705E-13   6.464167527829268E-5     7.965247776890704E-5     1.3404502693160378E-13   6.847822440172655E-5     5.7511253928154896E-5    1.3403782024013478E-13   7.010288403448643E-5     4.325726466354671E-5     1.3403061600273118E-13   7.029351179521187E-5     3.4148167493795416E-5    1.3402341354176716E-13   6.956481661572091E-5     2.8246010376801713E-5    1.3401621243102736E-13   6.82557717625561E-5      2.4297944726173547E-5    1.3400901239996642E-13   6.657921731858034E-5     2.1561554283542972E-5    1.3400181329267957E-13   6.467662691042298E-5     1.958370726648545E-5     1.3399461500966926E-13   6.264202110233519E-5     1.8092753713176224E-5    1.3398741748721084E-13   6.0539067095006584E-5    1.6924288517260873E-5    1.339802206825143E-13    5.8411666908039135E-5    1.59770624201632E-5      1.3397302456509903E-13   5.629054467073183E-5     1.5187252634332103E-5    1.3396582911183955E-13   5.4197410951314424E-5    1.45134979008671E-5      1.339586343041148E-13    5.214765227334434E-5     1.3928159346158584E-5    1.3395144012616049E-13   5.015211220289097E-5     1.3412167849729946E-5    1.339442465641078E-13    4.821830297885422E-5     1.2951943060880374E-5    1.3393705360541631E-13   4.635125234504719E-5     1.253751807158913E-5     1.3392986123853418E-13   4.455459245354039E-5     1.2161535067489232E-5    1.3392266945633899E-13   4.282962445063413E-5     1.1818014303508762E-5    1.339154782455394E-13    4.1175797576128065E-5    1.1501955318467745E-5    1.3390828758761284E-13   3.959506607797815E-5     1.1210472215825534E-5    1.3390109749033215E-13   3.808442035344113E-5     1.0939839731201752E-5    1.3389390792862727E-13   3.664462945401066E-5     1.0688173695378024E-5    1.3388671891060693E-13   3.5271892540750816E-5    1.0452833937510213E-5    1.3387953041253957E-13   3.3966239192305326E-5    1.0232532488510953E-5    1.3387234244287465E-13   3.2723514209175685E-5    1.0025323426734711E-5    1.3386515497909487E-13   3.1543289708400064E-5    9.83029485740153E-6      1.3385796802995958E-13   3.0421328880150678E-5    9.645968355201841E-6     1.338507815740525E-13    2.9356931876384084E-5    9.471680555710185E-6     1.338435956204219E-13    2.834594989992736E-5     9.306280606957851E-6     1.3383641014865117E-13   2.7387534258407643E-5    9.149275423298704E-6     1.3382922516805757E-13   2.647772672948623E-5     8.999751042819095E-6     1.3382204065913028E-13   2.5615611593532028E-5    8.85733448219122E-6      1.3381485663143564E-13   2.479747955559121E-5     8.721287574015619E-6     1.3380767306628128E-13   2.4022401792875322E-5    8.591324105088284E-6     1.338004899734622E-13    2.3286946998988007E-5    8.466839223922572E-6     1.3379330733502352E-13   2.25902081053445E-5      8.347610695197292E-6     1.3378612516096926E-13   2.1929041525456277E-5    8.23313666253012E-6      1.3377894343400684E-13   2.130258368532185E-5     8.123242899559597E-6     1.337717621643301E-13    2.0708364570268216E-5    8.017557698804699E-6     1.3376458134175702E-13   2.0145826384090272E-5    7.915976268848148E-6     1.3375740098064717E-13   1.9611009552743585E-5    7.817965112309587E-6     1.3375022104377965E-13   1.9102430915095454E-5    7.72332092448792E-6      1.3374304152802726E-13   1.861995046159084E-5     7.63201936034406E-6      1.337358624528563E-13    1.816350749250156E-5     7.544052383930918E-6     1.337286838418432E-13    1.772906335587638E-5     7.4589074151230605E-6    1.3372150564492283E-13   1.731546188382098E-5     7.376444100256393E-6     1.3371432786020546E-13   1.6922569469489344E-5    7.296657435897466E-6     1.33707150507132E-13     1.655031568979119E-5     7.219555409203442E-6     1.33699973609181E-13     1.6195494506209357E-5    7.144738590724765E-6     1.3369279711776798E-13   1.5857181374615977E-5    7.072103521075659E-6     1.336856210313544E-13    1.5535266462777014E-5    7.0016568856206045E-6    1.336784453694189E-13    1.5229692242930793E-5    6.93341640036678E-6      1.3367127015545494E-13   1.4937920189421056E-5    6.867062875206469E-6     1.3366409534196927E-13   1.4659220066858674E-5    6.802518487130353E-6     1.3365692092773224E-13   1.43935080952225E-5      6.739796583038424E-6     1.3364974693224358E-13   1.4140743685718634E-5    6.678920059272022E-6     1.336425733789966E-13    1.3898920906978876E-5    6.6196286018443E-6       1.336354002213704E-13    1.3667466569231802E-5    6.561862438861509E-6     1.336282274583752E-13    1.3446321218776441E-5    6.505638602851922E-6     1.3362105510952175E-13   1.3235461192710415E-5    6.450982520722029E-6     1.3361388319829604E-13   1.3033301062258296E-5    6.39767801190072E-6      1.336067116787727E-13    1.2839392693600534E-5    6.345678286350025E-6     1.3359954055014992E-13   1.2653697485346872E-5    6.29500223038428E-6      1.335923698319406E-13    1.24762066560828E-5      6.245676189342172E-6     1.3358519954761762E-13   1.2305664615158853E-5    6.19751772549552E-6      1.3357802965181347E-13   1.2141721720407815E-5    6.15048954387979E-6      1.3357086014387298E-13   1.1984356328206449E-5    6.104611235034347E-6     1.335636910433046E-13    1.1833571812122849E-5    6.059909070059556E-6     1.335565223735637E-13    1.168837022127875E-5     6.016226889134331E-6     1.3354935408973254E-13   1.1548478883964867E-5    5.9735344481576685E-6    1.3354218619127138E-13   1.1413889424481342E-5    5.931851315166785E-6     1.3353501869767894E-13   1.1284614619945847E-5    5.89120307718007E-6      1.3352785163239006E-13   1.115985729918009E-5     5.8514544032061124E-6    1.3352068495085275E-13   1.1039404612758642E-5    5.812580360936831E-6     1.3351351865261762E-13   1.0923258229647111E-5    5.774600039594642E-6     1.3350635275717049E-13   1.0811437853605607E-5    5.7375379759468455E-6    1.3349918728792306E-13   1.0703302664497503E-5    5.701275633004312E-6     1.3349202220062368E-13   1.0598686131998327E-5    5.665792137901569E-6     1.3348485749489418E-13   1.049759728623155E-5     5.631105821631746E-6     1.33477693190205E-13     1.0400060664167217E-5    5.597239962824712E-6     1.3347052930994376E-13   1.0305557276430203E-5    5.564089789847415E-6     1.3346336581010728E-13   1.0213956370176826E-5    5.531637577994276E-6     1.3345620269037396E-13   1.012527217379607E-5     5.499900738022044E-6     1.3344903997019744E-13   1.0039532359739575E-5    5.468901186539874E-6     1.3344187767294038E-13   9.956313053060299E-6     5.438545612629398E-6     1.3343471575480767E-13   9.87551110133973E-6      5.4088187701879014E-6    1.3342755421552292E-13   9.797199960488571E-6     5.379752423947295E-6     1.3342039308452126E-13   9.72172059775389E-6      5.35145381245051E-6      1.3341323244242685E-13   9.647828791152487E-6     5.323595611358026E-6     1.334060720898132E-13    9.57578198221949E-6      5.29624923857324E-6      1.3339891207362323E-13   9.506534041338888E-6     5.269700623345718E-6     1.333917526019238E-13    9.438525148744577E-6     5.243511430919155E-6     1.3338459338169236E-13   9.37274379252534E-6      5.217974733708635E-6     1.3337743462409164E-13   9.308846885146256E-6     5.193004295820242E-6     1.333702762829144E-13