% Model:              tunneling.mph
% Version:            COMSOL 5.4.0.225
% Date:               Mar 1 2021, 21:21
% Dimension:          1
% Nodes:              500
% Expressions:        303
% Description:        , , 
% X                       cp @ t=0                 ra @ t=0                 rs @ t=0                 cp @ t=0.1               ra @ t=0.1               rs @ t=0.1               cp @ t=0.2               ra @ t=0.2               rs @ t=0.2               cp @ t=0.3               ra @ t=0.3               rs @ t=0.3               cp @ t=0.4               ra @ t=0.4               rs @ t=0.4               cp @ t=0.5               ra @ t=0.5               rs @ t=0.5               cp @ t=0.6               ra @ t=0.6               rs @ t=0.6               cp @ t=0.7               ra @ t=0.7               rs @ t=0.7               cp @ t=0.8               ra @ t=0.8               rs @ t=0.8               cp @ t=0.9               ra @ t=0.9               rs @ t=0.9               cp @ t=1                 ra @ t=1                 rs @ t=1                 cp @ t=1.1               ra @ t=1.1               rs @ t=1.1               cp @ t=1.2               ra @ t=1.2               rs @ t=1.2               cp @ t=1.3               ra @ t=1.3               rs @ t=1.3               cp @ t=1.4               ra @ t=1.4               rs @ t=1.4               cp @ t=1.5               ra @ t=1.5               rs @ t=1.5               cp @ t=1.6               ra @ t=1.6               rs @ t=1.6               cp @ t=1.7               ra @ t=1.7               rs @ t=1.7               cp @ t=1.8               ra @ t=1.8               rs @ t=1.8               cp @ t=1.9               ra @ t=1.9               rs @ t=1.9               cp @ t=2                 ra @ t=2                 rs @ t=2                 cp @ t=2.1               ra @ t=2.1               rs @ t=2.1               cp @ t=2.2               ra @ t=2.2               rs @ t=2.2               cp @ t=2.3               ra @ t=2.3               rs @ t=2.3               cp @ t=2.4               ra @ t=2.4               rs @ t=2.4               cp @ t=2.5               ra @ t=2.5               rs @ t=2.5               cp @ t=2.6               ra @ t=2.6               rs @ t=2.6               cp @ t=2.7               ra @ t=2.7               rs @ t=2.7               cp @ t=2.8               ra @ t=2.8               rs @ t=2.8               cp @ t=2.9               ra @ t=2.9               rs @ t=2.9               cp @ t=3                 ra @ t=3                 rs @ t=3                 cp @ t=3.1               ra @ t=3.1               rs @ t=3.1               cp @ t=3.2               ra @ t=3.2               rs @ t=3.2               cp @ t=3.3               ra @ t=3.3               rs @ t=3.3               cp @ t=3.4               ra @ t=3.4               rs @ t=3.4               cp @ t=3.5               ra @ t=3.5               rs @ t=3.5               cp @ t=3.6               ra @ t=3.6               rs @ t=3.6               cp @ t=3.7               ra @ t=3.7               rs @ t=3.7               cp @ t=3.8               ra @ t=3.8               rs @ t=3.8               cp @ t=3.9               ra @ t=3.9               rs @ t=3.9               cp @ t=4                 ra @ t=4                 rs @ t=4                 cp @ t=4.1               ra @ t=4.1               rs @ t=4.1               cp @ t=4.2               ra @ t=4.2               rs @ t=4.2               cp @ t=4.3               ra @ t=4.3               rs @ t=4.3               cp @ t=4.4               ra @ t=4.4               rs @ t=4.4               cp @ t=4.5               ra @ t=4.5               rs @ t=4.5               cp @ t=4.6               ra @ t=4.6               rs @ t=4.6               cp @ t=4.7               ra @ t=4.7               rs @ t=4.7               cp @ t=4.8               ra @ t=4.8               rs @ t=4.8               cp @ t=4.9               ra @ t=4.9               rs @ t=4.9               cp @ t=5                 ra @ t=5                 rs @ t=5                 cp @ t=5.1               ra @ t=5.1               rs @ t=5.1               cp @ t=5.2               ra @ t=5.2               rs @ t=5.2               cp @ t=5.3               ra @ t=5.3               rs @ t=5.3               cp @ t=5.4               ra @ t=5.4               rs @ t=5.4               cp @ t=5.5               ra @ t=5.5               rs @ t=5.5               cp @ t=5.6               ra @ t=5.6               rs @ t=5.6               cp @ t=5.7               ra @ t=5.7               rs @ t=5.7               cp @ t=5.8               ra @ t=5.8               rs @ t=5.8               cp @ t=5.9               ra @ t=5.9               rs @ t=5.9               cp @ t=6                 ra @ t=6                 rs @ t=6                 cp @ t=6.1               ra @ t=6.1               rs @ t=6.1               cp @ t=6.2               ra @ t=6.2               rs @ t=6.2               cp @ t=6.3               ra @ t=6.3               rs @ t=6.3               cp @ t=6.4               ra @ t=6.4               rs @ t=6.4               cp @ t=6.5               ra @ t=6.5               rs @ t=6.5               cp @ t=6.6               ra @ t=6.6               rs @ t=6.6               cp @ t=6.7               ra @ t=6.7               rs @ t=6.7               cp @ t=6.8               ra @ t=6.8               rs @ t=6.8               cp @ t=6.9               ra @ t=6.9               rs @ t=6.9               cp @ t=7                 ra @ t=7                 rs @ t=7                 cp @ t=7.1               ra @ t=7.1               rs @ t=7.1               cp @ t=7.2               ra @ t=7.2               rs @ t=7.2               cp @ t=7.3               ra @ t=7.3               rs @ t=7.3               cp @ t=7.4               ra @ t=7.4               rs @ t=7.4               cp @ t=7.5               ra @ t=7.5               rs @ t=7.5               cp @ t=7.6               ra @ t=7.6               rs @ t=7.6               cp @ t=7.7               ra @ t=7.7               rs @ t=7.7               cp @ t=7.8               ra @ t=7.8               rs @ t=7.8               cp @ t=7.9               ra @ t=7.9               rs @ t=7.9               cp @ t=8                 ra @ t=8                 rs @ t=8                 cp @ t=8.1               ra @ t=8.1               rs @ t=8.1               cp @ t=8.2               ra @ t=8.2               rs @ t=8.2               cp @ t=8.3               ra @ t=8.3               rs @ t=8.3               cp @ t=8.4               ra @ t=8.4               rs @ t=8.4               cp @ t=8.5               ra @ t=8.5               rs @ t=8.5               cp @ t=8.6               ra @ t=8.6               rs @ t=8.6               cp @ t=8.7               ra @ t=8.7               rs @ t=8.7               cp @ t=8.8               ra @ t=8.8               rs @ t=8.8               cp @ t=8.9               ra @ t=8.9               rs @ t=8.9               cp @ t=9                 ra @ t=9                 rs @ t=9                 cp @ t=9.1               ra @ t=9.1               rs @ t=9.1               cp @ t=9.2               ra @ t=9.2               rs @ t=9.2               cp @ t=9.3               ra @ t=9.3               rs @ t=9.3               cp @ t=9.4               ra @ t=9.4               rs @ t=9.4               cp @ t=9.5               ra @ t=9.5               rs @ t=9.5               cp @ t=9.6               ra @ t=9.6               rs @ t=9.6               cp @ t=9.7               ra @ t=9.7               rs @ t=9.7               cp @ t=9.8               ra @ t=9.8               rs @ t=9.8               cp @ t=9.9               ra @ t=9.9               rs @ t=9.9               cp @ t=10                ra @ t=10                rs @ t=10
0.002                     3.478360069679848E-19    1.7389378249338533E-14   1.055244353241594E-13    3.668261765766469E-15    1.0612097742825433E-14   1.0531104940144841E-13   1.411945951299771E-14    7.0293009830977754E-15   1.0509809467250302E-13   4.0466607518617103E-14   4.681331032756884E-15    1.0488557042348323E-13   1.0225177665631825E-13   3.1085648591303456E-15   1.0467347625142407E-13   2.3787693609656237E-13   2.053356949493405E-15    1.044618107171404E-13    5.185905458813286E-13    1.348717243490872E-15    1.0425057325596971E-13   1.0691246679609885E-12   8.809949948685747E-16    1.0403976306879602E-13   2.096293014823318E-12    5.723671999778032E-16    1.038293789246321E-13    3.929811043347394E-12    3.700560341973418E-16    1.0361942046013433E-13   7.069524684363886E-12    2.3814892375460017E-16   1.03409886484836E-13     1.2245973875038202E-11   1.5259547138382326E-16   1.0320077600341004E-13   2.049589596143459E-11    9.741192954455596E-17    1.0299208876163573E-13   3.3222966546256967E-11   6.195355202425001E-17    1.0278382327223012E-13   5.229125811748021E-11    3.9270912111601144E-17   1.0257597890894671E-13   8.009858565903465E-11    2.4818989534924596E-17   1.023685550269109E-13    1.1963686770003374E-10   1.5640680503635153E-17   1.0216155063185814E-13   1.745436861114294E-10    9.83014775740261E-18     1.0195496474187308E-13   2.491281137458467E-10    6.162024588401794E-18    1.0174879623023435E-13   3.4843485305575284E-10   3.854269914256368E-18    1.015430447504535E-13    4.781665590730521E-10    2.4058432126598796E-18   1.0133770940783893E-13   6.446130262473323E-10    1.498583334092745E-18    1.0113278896895835E-13   8.547357794942039E-10    9.32026761137914E-19     1.0092828342813823E-13   1.1156889278204755E-9    5.784565246579003E-19    1.0072419067324375E-13   1.4353051278749863E-9    3.5863981914685896E-19   1.0052051158047747E-13   1.8209767143218422E-9    2.2188389063445183E-19   1.0031724316608833E-13   2.2808156644410286E-9    1.3719469268891542E-19   1.0011438718105903E-13   2.8217478879753472E-9    8.46644028336785E-20     9.991194020537324E-14    3.451164054756527E-9     5.221381501142342E-20    9.970990357282973E-14    4.1749722603502335E-9    3.215071765133788E-20    9.950827472421106E-14    4.998931089877534E-9     1.9783119760727552E-20   9.93070542066627E-14     5.927269092197337E-9     1.2159973250314101E-20   9.910624045699513E-14    6.963299412585968E-9     7.468478921796984E-21    9.890583301832219E-14    8.108890250496658E-9     4.583272711805805E-21    9.870583093686986E-14    9.364405848240994E-9     2.8098359320421394E-21   9.850623294729997E-14    1.0729087189684771E-8    1.721808403583967E-21    9.830703910846253E-14    1.2200079500717878E-8    1.0538464489103269E-21   9.810824729858738E-14    1.3773807585586394E-8    6.449402002981848E-22    9.790985843527643E-14    1.5444249265743887E-8    3.941628969245469E-22    9.771186957163302E-14    1.7205075657490487E-8    2.4094486402320064E-22   9.751428240651254E-14    1.904752159545076E-8     1.4709772794105038E-22   9.731709364731329E-14    2.0962567760037632E-8    8.98048488998708E-23     9.712030453790942E-14    2.2939451498920067E-8    5.477412766585924E-23    9.692391264924649E-14    2.4966972565508983E-8    3.340188369906531E-23    9.67279183717218E-14     2.7032922898770047E-8    2.035554164557278E-23    9.653232013294175E-14    2.91246797409805E-8      1.240005123290067E-23    9.633711747667988E-14    3.1229198700525786E-8    7.551166561956103E-24    9.61423096803557E-14     3.333325855064231E-8     4.595561778232493E-24    9.594789544792623E-14    3.542358872274509E-8     2.7967003447863783E-24   9.575387489981575E-14    3.748718384573124E-8     1.7005450930760775E-24   9.556024590692742E-14    3.9511111890853913E-8    1.0342984551161109E-24   9.53670094259204E-14     4.1483315575618676E-8    6.284210694525993E-25    9.517416255541963E-14    4.3391712997742545E-8    3.8200931046713293E-25   9.498170691941497E-14    4.5225704227085446E-8    2.3198994717969625E-25   9.478963937335065E-14    4.69747045499666E-8      1.4092367521435407E-25   9.459796106704982E-14    4.862975026197434E-8     8.554513017308068E-26    9.440666969682244E-14    5.018222468516139E-8     5.193077316845163E-26    9.421576558142072E-14    5.162497100600222E-8     3.151201122582647E-26    9.402524725130113E-14    5.295161737755419E-8     1.911798824100172E-26    9.383511420080075E-14    5.415687485527831E-8     1.1597298969065073E-26   9.364536578784296E-14    5.5236740512761423E-8    7.032048139961626E-27    9.345600068896525E-14    5.6187759894946206E-8    4.26466513018715E-27     9.326701908291879E-14    5.700828499512806E-8     2.584609058795767E-27    9.307841883501631E-14    5.769658690741476E-8     1.5671755698799556E-27   9.289020093823846E-14    5.825321321016756E-8     9.494496343217897E-28    9.270236253619093E-14    5.8678112910926615E-8    5.7547021863518555E-28   9.25149050905819E-14     5.8973615420775636E-8    3.4831485019966897E-28   9.232782559186067E-14    5.9141401814879185E-8    2.1080206208301356E-28   9.214112518770196E-14    5.918498392882126E-8     1.2743009794480686E-28   9.195480170853761E-14    5.910770904573352E-8     7.69873023159155E-29     9.176885540902016E-14    5.891402720384022E-8     4.645254670358538E-29    9.158328490402453E-14    5.860864585455891E-8     2.792627186443032E-29    9.139808954422006E-14    5.81966836531029E-8      1.6676712069913716E-29   9.121326876740303E-14    5.768380287423845E-8     9.914059759161184E-30    9.10288213246494E-14     5.707557380797717E-8     5.889533615872017E-30    9.08447474494825E-14     5.637838522022118E-8     3.520239192797793E-30    9.066104500303351E-14    5.5598048708025015E-8    2.1556796837867818E-30   9.047771501178547E-14    5.4741330604806703E-8    1.3913847272141576E-30   9.029475466365033E-14    5.3814170947539107E-8    9.86991088192692E-31     9.011216544044812E-14    5.282334372258451E-8     7.93092250686941E-31     8.992994447677997E-14    5.1774903892769945E-8    7.213283902642852E-31    8.974809274568546E-14    5.067531369411978E-8     7.175445707844019E-31    8.956660817900039E-14    4.953058698313465E-8     7.497477927476814E-31    8.938549096169567E-14    4.834678034470847E-8     7.987992613870857E-31    8.920473981647754E-14    4.712968224776693E-8     8.535501713735806E-31    8.902435414657192E-14    4.588488063415815E-8     9.075996406692878E-31    8.884433345922975E-14    4.46177907999834E-8      9.574214397495296E-31    8.866467638221837E-14    4.3333495909844626E-8    1.0011758758953353E-30   8.848538320104586E-14    4.203692593861652E-8     1.0380784983356055E-30   8.830645177426995E-14    4.073264564122266E-8     1.0678807826916677E-30   8.81278831594059E-14     3.942502118003127E-8     1.0907525222804816E-30   8.794967458828895E-14    3.811810260173022E-8     1.1069783791478998E-30   8.77718274754039E-14     3.681565544271407E-8     1.1170236821299879E-30   8.759433908710846E-14    3.552120040224624E-8     1.1213413983165936E-30   8.741721031367251E-14    3.423792575958134E-8     1.12044978521744E-30     8.724043919776856E-14    3.29688025823561E-8      1.1148353657518501E-30   8.706402586230673E-14    3.171648935791535E-8     1.10499152188449E-30     8.688796912007614E-14    3.048340261299314E-8     1.09138549045592E-30     8.671226833278803E-14    2.9271723392820225E-8    1.0744609342562918E-30   8.653692307718712E-14    2.808332567356115E-8     1.0546448351778221E-30   8.636193195990848E-14    2.6919967473475964E-8    1.0323251442552561E-30   8.618729531552832E-14
0.006                     6.539332354314443E-19    3.268883250926568E-14    1.3408824173797104E-13   5.435237591893681E-15    2.1450892300205233E-14   1.3381709559916384E-13   1.9642993764683836E-14   1.4258717449130467E-14   1.3354649737149855E-13   5.4527475796659025E-14   9.494317703358463E-15    1.3327644614791014E-13   1.3480844659480667E-13   6.29818649816829E-15     1.3300694141635735E-13   3.081805312922498E-13    4.155129033680941E-15    1.3273798134809011E-13   6.617406216453641E-13    2.7257986414134807E-15   1.3246956522560047E-13   1.3457712301199743E-12   1.7783556575391346E-15   1.3220169203346437E-13   2.606147352581079E-12    1.1540453590473368E-15   1.3193436020748556E-13   4.830101719795972E-12    7.453380141932398E-16    1.3166756928596832E-13   8.597976512487196E-12    4.791884886005915E-16    1.3140131775620482E-13   1.474904192711334E-11    3.06763755554145E-16     1.3113560435344812E-13   2.4462737446643967E-11   1.9566368489689675E-16   1.3087042875466233E-13   3.932096522401478E-11    1.2434493209984275E-16   1.3060578906997886E-13   6.140655821235093E-11    7.876306627772147E-17    1.3034168450363372E-13   9.337682606728554E-11    4.9744987283350166E-17   1.300781142361923E-13    1.3852150283565702E-10   3.1329684875962343E-17   1.2981507700425477E-13   2.008106372029082E-10    1.9679552307641036E-17   1.295525715601119E-13    2.8491361703330313E-10   1.2329662000110749E-17   1.2929059647205135E-13   3.9626066399060184E-10   7.70830655305703E-18     1.290291512997889E-13    5.409482471419843E-10    4.8093714452760334E-18   1.2876823490644654E-13   7.256554018991593E-10    2.994467802662527E-18    1.2850784572471286E-13   9.577295903315983E-10    1.8616484051113E-18      1.2824798374736874E-13   1.2446639383378652E-9    1.1549994152299207E-18   1.2798864629054736E-13   1.5946195643895064E-9    7.158503426915681E-19    1.277298344676138E-13    2.015223368325442E-9     4.427427870989782E-19    1.2747154448715073E-13   2.5148113182572814E-9    2.7367456205759043E-19   1.2721377857409084E-13   3.100400192545739E-9     1.688407324039004E-19    1.2695653238266107E-13   3.779447931240046E-9     1.0409957428693736E-19   1.2669980760768497E-13   4.557798280377909E-9     6.408378442755862E-20    1.2644360099719208E-13   5.441095786507755E-9     3.942329061004864E-20    1.261879132464189E-13    6.433343050378137E-9     2.4226868981783765E-20   1.2593274236903307E-13   7.537556109175713E-9     1.4876783423314235E-20   1.2567808778446527E-13   8.75522137905411E-9      9.127881046859711E-21    1.2542394828075931E-13   1.0086247769272965E-8    5.5949648865686155E-21   1.2517032225006127E-13   1.1529367710155007E-8    3.427898251913652E-21    1.2491720976714267E-13   1.3081150264537175E-8    2.0977375686413184E-21   1.2466460813589852E-13   1.4737417982853223E-8    1.2835950406122112E-21   1.2441251852230585E-13   1.649150029200925E-8     7.843727814364805E-22    1.241609371817879E-13    1.8336412176587075E-8    4.794090491979406E-22    1.2390986627305115E-13   2.026271921967921E-8     2.9264377289417433E-22   1.236593016122408E-13    2.226073548824691E-8     1.7864092740769948E-22   1.2340924477993018E-13   2.4319052535731846E-8    1.0894496758963585E-22   1.2315969268956314E-13   2.642583894284052E-8     6.642871489613121E-23    1.2291064583721768E-13   2.8568297169403297E-8    4.047838141728654E-23    1.2266210222488573E-13   3.0733248795906695E-8    2.4655955438506982E-23   1.224140612728569E-13    3.290714102850536E-8     1.501317160947968E-23    1.2216652206297044E-13   3.507630243856216E-8     9.136061985486314E-24    1.2191948294837722E-13   3.7227051127379296E-8    5.559431064846381E-24    1.216729440821111E-13    3.9346055802348937E-8    3.380167906582268E-24    1.2142690275877646E-13   4.142007774181735E-8     2.0557177336498087E-24   1.2118136019399943E-13   4.3436865183422146E-8    1.2489277957234138E-24   1.209363127010641E-13    4.538413672048081E-8     7.591562028158386E-25    1.2069176234356386E-13   4.725121981416094E-8     4.609972300294387E-25    1.2044770512577768E-13   4.90274489287763E-8      2.8001835063520876E-25   1.2020414250878328E-13   5.070388371040039E-8     1.6997007394530023E-25   1.1996107156533417E-13   5.2271940384059906E-8    1.0317581042400518E-25   1.1971849270047932E-13   5.372456712921841E-8     6.260461607324446E-26    1.1947640404690835E-13   5.505552372302399E-8     3.7979633488038666E-26   1.1923480496209855E-13   5.6259691946201645E-8    2.3038012019696963E-26   1.1899369463018751E-13   5.7333281040230334E-8    1.3968532620054862E-26   1.1875307136948607E-13   5.827305684237507E-8     8.471026732886952E-27    1.185129354071438E-13    5.907764445491995E-8     5.133689208303862E-27    1.182732840306593E-13    5.974556944097648E-8     3.1127028151627452E-27   1.1803411850180955E-13   6.027769302203571E-8     1.885728237117775E-27    1.1779543519102963E-13   6.067424230361733E-8     1.142881725661624E-27    1.1755723595569936E-13   6.093787733686221E-8     6.9168733275385745E-28   1.173195169716385E-13    6.107057460222769E-8     4.185639096592064E-28    1.1708227969718817E-13   6.107617127768514E-8     2.5298865209957E-28      1.1684552137551891E-13   6.095831864922631E-8     1.528248316852376E-28    1.1660924233022052E-13   6.072177824260229E-8     9.219850634615526E-29    1.1637344080124186E-13   6.037155682654627E-8     5.539722206354586E-29    1.161381159634933E-13    5.991306379729792E-8     3.306364613156323E-29    1.1590326710259548E-13   5.9352244352694156E-8    1.9656193582722842E-29   1.1566889263156343E-13   5.8694935149651875E-8    1.1691353159597647E-29   1.1543499284713405E-13   5.794778506809549E-8     7.014281864443154E-30    1.15201565031482E-13     5.7116845064377185E-8    4.331089687278215E-30    1.149686104889447E-13    5.620911266239174E-8     2.8376051514463203E-30   1.1473612564624587E-13   5.5230739569245904E-8    2.0561313738535425E-30   1.1450411238631158E-13   5.418869880459268E-8     1.6899487024457147E-30   1.142725670681233E-13    5.30892286064773E-8      1.563697813538303E-30    1.1404149092810663E-13   5.1938958249458475E-8    1.5700347614412397E-30   1.138108813382759E-13    5.0744055337000894E-8    1.6456303938444274E-30   1.1358073853366924E-13   4.9510713878052555E-8    1.7526872452893734E-30   1.1335106089124696E-13   4.824484630851858E-8     1.8692562850866467E-30   1.1312184765269527E-13   4.6952151230334325E-8    1.9827998547468535E-30   1.1289309819188278E-13   4.563813896434619E-8     2.0864757345506777E-30   1.1266481076513192E-13   4.4307979663282204E-8    2.176769671006717E-30    1.1243698573523012E-13   4.2966671045553215E-8    2.2522588494646948E-30   1.1220962038107657E-13   4.1618844334412194E-8    2.31256363456679E-30     1.119827160464365E-13    4.026890888245844E-8     2.358137258220318E-30    1.11756269213842E-13     3.892096230809463E-8     2.3896419200555503E-30   1.1153028168065347E-13   3.7578793812752576E-8    2.4081016630808213E-30   1.1130474997327018E-13   3.6245952311311194E-8    2.4145015470700034E-30   1.110796752229406E-13    3.492563594891504E-8     2.4099559810307462E-30   1.1085505494251537E-13   3.3620826249805995E-8    2.3955070161466046E-30   1.1063088928817075E-13   3.233418069782629E-8     2.3722070463508572E-30   1.1040717675133277E-13   3.1068111003175516E-8    2.3410504814834493E-30   1.1018391652093386E-13   2.9824788909727946E-8    2.3029798334106668E-30   1.0996110805914634E-13   2.8606070757534573E-8    2.2589003896217272E-30   1.0973874959543964E-13   2.7413699176793517E-8    2.2096340888172156E-30   1.0951684155495105E-13